ITEM: TIMESTEP
21500
ITEM: NUMBER OF ATOMS
10500
ITEM: BOX BOUNDS xy xz yz pp pp pp
0.0000000000000000e+00 1.5297749999999999e+01 5.0992499999999996e+00
0.0000000000000000e+00 1.1872499999999999e+02 0.0000000000000000e+00
0.0000000000000000e+00 8.9688000000000002e+01 0.0000000000000000e+00
ITEM: ATOMS id type element xu yu zu q c_pe c_s[1] c_s[2] c_s[3] c_s[4] c_s[5] c_s[6]
1 1 Mg 6.2404 -6.37941e-06 0 1.2 -4.2779 7.65298e+06 -1.77057e+06 -6.29022e+06 -20256.8 2.6316e+06 -193343
2 1 Mg 3.46349 4.70768 1.4948 1.2 -8.39899 -470172 2.70195e+06 4.32099e+06 -930997 -627801 114714
3 2 Si 5.2885 2.02354 1.4948 2.4 -34.9784 9.54409e+06 1.11209e+07 1.1169e+07 8.85968e+06 713668 -2.98544e+06
4 3 O 5.33628 3.63678 1.4948 -1.2 -4.82759 -629050 -1.47977e+06 -3.36549e+07 -329750 3.80837e+06 -3.91342e+06
5 3 O 1.67294 1.04952 1.4948 -1.2 -1.20435 -2.00864e+07 -7.94734e+07 -2.00552e+06 -2.41366e+07 -104636 -123130
6 3 O 4.59532 1.31737 0.196716 -1.2 -3.17136 -1.71611e+06 -6.76476e+06 -3.04162e+07 -6.03729e+06 6.24054e+06 -2.67506e+06
7 1 Mg 6.18956 -6.37941e-06 2.9896 1.2 -4.75975 1.28581e+06 -2.80789e+07 -3.1164e+06 -8.85051e+06 2.50075e+06 4.07502e+06
8 3 O 4.55118 1.31737 2.79288 -1.2 -7.65879 368124 -4.79359e+06 -3.04444e+06 -2.96984e+06 -3.41925e+06 -1.19535e+06
9 1 Mg -1.20682 0.0413099 4.4844 1.2 9.08641 -3.11263e+07 -9.32482e+07 -287046 -2.85479e+07 -1.23413e+06 189590
10 2 Si -3.0337 2.72544 4.4844 2.4 -32.9014 1.38898e+07 6.96443e+06 8.23264e+06 1.46723e+06 127367 -396856
11 3 O -3.08099 1.11221 4.4844 -1.2 -9.76443 -5.86861e+06 -35853.3 -2.15535e+06 -1.15947e+06 -291655 166080
12 3 O 0.582463 3.69946 4.4844 -1.2 -9.07878 -3.10702e+06 -5.40989e+06 -2.90585e+06 -597546 -154566 -151739
13 3 O -2.29524 3.43162 3.18632 -1.2 -9.16656 -4.03167e+06 -2.50299e+06 -615013 1.11672e+06 -818995 -998650
14 3 O -2.34216 3.43162 5.78248 -1.2 -8.92576 -3.74435e+06 -3.10243e+06 -1.74969e+06 903263 651310 1.20517e+06
15 1 Mg 1.12778 2.37449 2.9896 1.2 -7.46693 4.96788e+06 -1.61066e+06 -713349 -3.25962e+06 -4.21373e+06 -2.18241e+06
16 1 Mg 3.92855 2.33318 4.4844 1.2 -8.32404 -4.3421e+06 4.9305e+06 4.77531e+06 1.4218e+06 312268 667333
17 2 Si 2.09341 4.39804 4.4844 2.4 -32.1985 1.17358e+07 6.61643e+06 9.15962e+06 267514 -193506 674697
18 3 O 2.09991 6.01128 4.4844 -1.2 -9.54746 -3.8937e+06 96971.9 -4.06433e+06 545570 -201888 -140071
19 3 O -4.52137 3.42402 4.4844 -1.2 -9.26694 -2.71696e+06 -2.81408e+06 -3.71912e+06 -2.38067e+06 -890424 -95365.1
20 3 O 2.80834 3.69187 3.18632 -1.2 -9.43657 -1.95503e+06 -2.79398e+06 -454093 436770 -496227 -571535
21 1 Mg 1.17857 2.37449 0 1.2 -4.99974 -805759 -1.47635e+07 -6.50276e+06 6.52564e+06 1.19287e+06 4.59528e+06
22 3 O 2.76143 3.69187 5.78248 -1.2 -9.43772 -2.66045e+06 -2.29694e+06 -1.32982e+06 416611 1207.87 -178093
23 1 Mg -1.67381 2.41581 1.4948 1.2 -7.45107 1.349e+06 -167225 4.02277e+06 1.34142e+06 -581887 1.04436e+06
24 2 Si 0.16286 0.350945 1.4948 2.4 -24.2375 -8.73534e+06 1.26291e+07 1.12371e+07 1.58142e+06 2.80693e+06 1.22413e+06
25 3 O 0.15972 -1.26229 1.4948 -1.2 -4.93136 -1.03826e+07 -8.11037e+06 -2.88914e+07 -5.59864e+06 -8.51898e+06 -2.60935e+06
26 3 O 6.77654 1.32496 1.4948 -1.2 -10.5019 -5.49612e+06 1.68827e+06 -1.31026e+06 -630634 -665072 1.03742e+06
27 3 O -0.508028 1.05712 0.196716 -1.2 -9.67443 334903 -4.75112e+06 -615435 -541628 201462 -4.55731e+06
28 3 O -0.552171 1.05712 2.79288 -1.2 -6.9534 -5.05684e+06 -4.68445e+06 -2.46023e+07 1.43226e+06 -6.77104e+06 -5.55933e+06
29 1 Mg 6.31713 4.74899 0 1.2 -4.86555 227337 -1.28753e+07 -6.10892e+06 -7.31466e+06 1.44369e+06 -3.61028e+06
30 1 Mg 3.54847 9.45668 1.4948 1.2 -8.3385 264834 1.64278e+06 4.52684e+06 -966781 -948251 -303767
31 2 Si 5.36879 6.77254 1.4948 2.4 -34.2285 7.14958e+06 1.19665e+07 1.16722e+07 1.65312e+06 142590 -1.91396e+06
32 3 O 5.41937 8.38578 1.4948 -1.2 -4.7671 -304095 -871088 -3.52898e+07 771000 1.11539e+06 -4.24726e+06
33 3 O 1.75158 5.79852 1.4948 -1.2 -9.5583 -3.91168e+06 -2.34252e+06 -1.44448e+06 1.96458e+06 -1.58643e+06 -1.37918e+06
34 3 O 4.67421 6.06637 0.196716 -1.2 -3.81419 245524 -1.01165e+07 -3.1498e+07 -2.00953e+06 1.31019e+06 -4.44924e+06
35 1 Mg 6.26654 4.74899 2.9896 1.2 -7.95389 3.97817e+06 -1.72169e+06 57321.2 1.78747e+06 -845235 1.96754e+06
36 3 O 4.63043 6.06637 2.79288 -1.2 -8.89851 -1.51493e+06 -3.90312e+06 -2.28317e+06 949801 -112792 -1.48277e+06
37 1 Mg -1.12976 4.79031 4.4844 1.2 -8.71527 -687488 2.66738e+06 2.85194e+06 -693076 -471312 -80762.4
38 2 Si -2.9517 7.47444 4.4844 2.4 -32.7945 1.12903e+07 8.63772e+06 8.77118e+06 90132.6 -94469.2 -188448
39 3 O -3.00198 5.86121 4.4844 -1.2 -9.48352 -3.92325e+06 -26509.1 -3.87295e+06 49899 -177346 72779.8
40 3 O 0.666315 8.44846 4.4844 -1.2 -9.27866 -3.33291e+06 -2.51034e+06 -3.36279e+06 2.11062e+06 -528695 8209.97
41 3 O -2.21213 8.18062 3.18632 -1.2 -9.11207 -2.94589e+06 -3.28342e+06 -712461 1.08117e+06 -305656 -1.42436e+06
42 3 O -2.25864 8.18062 5.78248 -1.2 -9.0275 -3.0347e+06 -3.51733e+06 -1.68111e+06 961817 -60643.3 1.47829e+06
43 1 Mg 1.20893 7.12349 2.9896 1.2 -7.9636 4.07087e+06 -1.69322e+06 -69090.8 -1.28077e+06 -1.31941e+06 -1.64407e+06
44 1 Mg 4.00982 7.08218 4.4844 1.2 -8.64703 -920999 2.43275e+06 3.26164e+06 967874 -265707 114366
45 2 Si 2.17861 9.14704 4.4844 2.4 -32.8631 1.1062e+07 8.6621e+06 9.05719e+06 499926 -42445.7 103232
46 3 O 2.18828 10.7603 4.4844 -1.2 -9.42988 -3.87018e+06 -55270.5 -4.09698e+06 485512 -156666 1347.51
47 3 O -4.43805 8.17302 4.4844 -1.2 -9.31785 -3.34242e+06 -2.49184e+06 -3.27605e+06 -1.50217e+06 -440811 6968.57
48 3 O 2.89193 8.44087 3.18632 -1.2 -9.11245 -2.74883e+06 -3.46699e+06 -878389 -900833 -221083 1.25396e+06
49 1 Mg 1.25915 7.12349 0 1.2 -5.28536 956419 -7.61776e+06 -6.31684e+06 5.89514e+06 1.35724e+06 2.62849e+06
50 3 O 2.84547 8.44087 5.78248 -1.2 -8.96311 -2.7616e+06 -3.64622e+06 -2.15162e+06 -798697 -140269 -1.2597e+06
51 1 Mg -1.59284 7.16481 1.4948 1.2 -8.21768 787779 1.3017e+06 4.35049e+06 1.46612e+06 -902937 346467
52 2 Si 0.240329 5.09994 1.4948 2.4 -33.9138 8.09975e+06 1.09107e+07 1.12741e+07 -1.95138e+06 -1.06866e+06 2.00074e+06
53 3 O 0.234538 3.48671 1.4948 -1.2 -5.33364 -1.61576e+06 377227 -3.37508e+07 396519 5.19149e+06 3.92864e+06
54 3 O 6.85564 6.07396 1.4948 -1.2 -9.63045 -4.3243e+06 -1.77882e+06 -1.4413e+06 -1.34039e+06 -1.83866e+06 1.15511e+06
55 3 O -0.429565 5.80612 0.196716 -1.2 -4.07965 -615983 -8.7649e+06 -3.15198e+07 1.85235e+06 1.18392e+06 4.54557e+06
56 3 O -0.473377 5.80612 2.79288 -1.2 -8.99837 -2.07587e+06 -3.4878e+06 -2.07745e+06 -793299 314682 1.28916e+06
57 1 Mg 6.40169 9.49799 0 1.2 -5.29186 1.56501e+06 -6.51013e+06 -6.51168e+06 -5.48657e+06 1.00802e+06 -2.41499e+06
58 1 Mg 3.64209 14.2057 1.4948 1.2 -8.45627 264543 1.61949e+06 4.69822e+06 -1.02679e+06 -994251 -348717
59 2 Si 5.45748 11.5215 1.4948 2.4 -34.3229 7.66357e+06 1.14602e+07 1.17918e+07 898292 314839 -2.18624e+06
60 3 O 5.51101 13.1348 1.4948 -1.2 -4.74993 -589634 -717420 -3.50053e+07 463401 -2.52759e+06 -4.29972e+06
61 3 O 1.83851 10.5475 1.4948 -1.2 -9.55513 -4.23877e+06 -1.75565e+06 -1.43722e+06 1.5439e+06 -1.57081e+06 -1.09306e+06
62 3 O 4.7611 10.8154 0.196716 -1.2 -3.59387 543950 -1.1388e+07 -3.21006e+07 -2.46644e+06 -1.7433e+06 -4.30482e+06
63 1 Mg 6.35203 9.49799 2.9896 1.2 -7.96843 4.13391e+06 -1.72633e+06 -72772.6 1.31884e+06 -1.20282e+06 1.97372e+06
64 3 O 4.71833 10.8154 2.79288 -1.2 -8.85927 -1.86138e+06 -3.64327e+06 -2.26883e+06 1.05352e+06 69239.4 -1.28748e+06
65 1 Mg -1.0438 9.53931 4.4844 1.2 -8.66767 -823713 2.3767e+06 3.16547e+06 -523751 -213363 -42199
66 2 Si -2.8604 12.2234 4.4844 2.4 -32.8654 1.15828e+07 8.48822e+06 8.74293e+06 -21798.8 16923 67454.7
67 3 O -2.91391 10.6102 4.4844 -1.2 -9.48454 -4.02584e+06 -33272.2 -3.76982e+06 188631 -193159 -5147.21
68 3 O 0.7596 13.1975 4.4844 -1.2 -9.19328 -3.34871e+06 -2.45489e+06 -3.54048e+06 2.17285e+06 -506589 85019.7
69 3 O -2.12001 12.9296 3.18632 -1.2 -9.04229 -2.98191e+06 -3.255e+06 -820567 1.16289e+06 -271078 -1.49673e+06
70 3 O -2.16532 12.9296 5.78248 -1.2 -8.9616 -3.14129e+06 -3.38857e+06 -1.80689e+06 1.12401e+06 -259340 1.28375e+06
71 1 Mg 1.29891 11.8725 2.9896 1.2 -8.03251 4.18052e+06 -1.72059e+06 -44107.7 -1.18814e+06 -1.21768e+06 -1.70852e+06
72 1 Mg 4.10033 11.8312 4.4844 1.2 -8.6961 -689415 2.36507e+06 3.1784e+06 1.12605e+06 -396443 55306.7
73 2 Si 2.27333 13.896 4.4844 2.4 -32.9732 1.13456e+07 8.50858e+06 9.10039e+06 726862 -164450 -99507.7
74 3 O 2.28634 15.5093 4.4844 -1.2 -9.40233 -4.02238e+06 19599.2 -4.07072e+06 422950 -171556 62144
75 3 O -4.34533 12.922 4.4844 -1.2 -9.28279 -3.55524e+06 -2.37464e+06 -3.2344e+06 -1.48386e+06 -433722 -81174.3
76 3 O 2.98455 13.1899 3.18632 -1.2 -9.05352 -2.9022e+06 -3.37384e+06 -934875 -968082 -112034 1.34099e+06
77 1 Mg 1.34779 11.8725 0 1.2 -5.55898 2.88336e+06 -2.92927e+06 -6.59553e+06 3.56496e+06 793198 1.58325e+06
78 3 O 2.93934 13.1899 5.78248 -1.2 -8.90735 -2.94702e+06 -3.57286e+06 -2.14075e+06 -1.00632e+06 -14192.5 -1.13691e+06
79 1 Mg -1.50344 11.9138 1.4948 1.2 -8.3711 577662 1.57872e+06 4.51313e+06 1.56294e+06 -914310 392807
80 2 Si 0.326006 9.84894 1.4948 2.4 -34.2512 7.66207e+06 1.15164e+07 1.15945e+07 -601868 144266 2.30432e+06
81 3 O 0.317364 8.23571 1.4948 -1.2 -4.77581 -453717 -736449 -3.53902e+07 -128655 1.16606e+06 4.16372e+06
82 3 O 6.94307 10.823 1.4948 -1.2 -9.59383 -4.40746e+06 -1.579e+06 -1.34246e+06 -989014 -1.53976e+06 1.05717e+06
83 3 O -0.343122 10.5551 0.196716 -1.2 -3.69949 217637 -1.08312e+07 -3.21268e+07 2.45943e+06 -2.06713e+06 4.48472e+06
84 3 O -0.385966 10.5551 2.79288 -1.2 -8.89445 -1.90424e+06 -3.68719e+06 -2.27036e+06 -864394 46593.3 1.11613e+06
85 1 Mg 6.49448 14.247 0 1.2 -5.56388 3.38338e+06 -2.16088e+06 -6.67115e+06 -2.96555e+06 269732 -1.58628e+06
86 1 Mg 3.74457 18.9547 1.4948 1.2 -8.57589 133258 1.67059e+06 4.89286e+06 -1.1256e+06 -983497 -242423
87 2 Si 5.55495 16.2705 1.4948 2.4 -34.4126 8.0927e+06 1.096e+07 1.20253e+07 534418 778248 -2.34558e+06
88 3 O 5.6115 17.8838 1.4948 -1.2 -5.0174 -1.68247e+06 -523645 -3.24465e+07 76674.4 -6.04427e+06 -4.13457e+06
89 3 O 1.93416 15.2965 1.4948 -1.2 -9.53566 -4.4099e+06 -1.35649e+06 -1.44661e+06 1.53404e+06 -1.36404e+06 -978928
90 3 O 4.85636 15.5644 0.196716 -1.2 -3.54739 445712 -1.29876e+07 -3.06436e+07 -3.03806e+06 -5.11233e+06 -3.67725e+06
91 1 Mg 6.44662 14.247 2.9896 1.2 -8.01269 4.31733e+06 -1.83963e+06 -72860.8 1.29057e+06 -1.19267e+06 1.98895e+06
92 3 O 4.81537 15.5644 2.79288 -1.2 -8.79472 -1.93913e+06 -3.56343e+06 -2.40472e+06 1.05719e+06 -4030.85 -1.26187e+06
93 1 Mg -0.948271 14.2883 4.4844 1.2 -8.74807 -839763 2.26936e+06 3.41151e+06 -607165 -212499 -67567.2
94 2 Si -2.75928 16.9724 4.4844 2.4 -32.9729 1.15844e+07 8.31508e+06 9.09039e+06 -79645.8 -150113 28117.7
95 3 O -2.81617 15.3592 4.4844 -1.2 -9.41834 -4.06981e+06 91665.8 -3.94493e+06 317662 -175618 -29081.6
96 3 O 0.862762 17.9465 4.4844 -1.2 -9.1954 -3.46885e+06 -2.47024e+06 -3.41352e+06 2.17051e+06 -503365 17326.2
97 3 O -2.0185 17.6786 3.18632 -1.2 -8.99086 -3.01187e+06 -3.19693e+06 -950827 1.16232e+06 -140688 -1.50513e+06
98 3 O -2.06164 17.6786 5.78248 -1.2 -8.93056 -3.04245e+06 -3.39073e+06 -1.91906e+06 1.12984e+06 17351.7 1.3784e+06
99 1 Mg 1.39817 16.6215 2.9896 1.2 -8.05888 4.37115e+06 -1.78812e+06 -127108 -1.16152e+06 -1.21957e+06 -1.70068e+06
100 1 Mg 4.20062 16.5802 4.4844 1.2 -8.74028 -651359 2.26293e+06 3.31565e+06 1.17434e+06 -278006 75431.3
101 2 Si 2.37796 18.645 4.4844 2.4 -32.9938 1.14948e+07 8.44167e+06 9.04595e+06 664374 -17912.6 133046
102 3 O 2.39434 20.2583 4.4844 -1.2 -9.36693 -4.06215e+06 96785.3 -4.16768e+06 543638 -151046 -80405.7
103 3 O -4.24274 17.671 4.4844 -1.2 -9.23345 -3.56628e+06 -2.27076e+06 -3.40545e+06 -1.41785e+06 -434492 -76292.6
104 3 O 3.08659 17.9389 3.18632 -1.2 -9.01328 -2.96796e+06 -3.31997e+06 -1.02816e+06 -937775 -77897.3 1.29021e+06
105 1 Mg 1.44478 16.6215 0 1.2 -5.73574 4.65217e+06 -61947.9 -6.5058e+06 1.38893e+06 -66200 829115
106 3 O 3.0436 17.9389 5.78248 -1.2 -8.93477 -2.94133e+06 -3.55508e+06 -2.01043e+06 -919194 -242341 -1.2143e+06
107 1 Mg -1.40524 16.6628 1.4948 1.2 -8.50064 473701 1.62954e+06 4.72619e+06 1.6877e+06 -954596 323252
108 2 Si 0.420358 14.5979 1.4948 2.4 -34.377 7.93785e+06 1.12261e+07 1.17948e+07 -144438 577925 2.3675e+06
109 3 O 0.408732 12.9847 1.4948 -1.2 -4.73929 -616716 -698032 -3.51486e+07 229676 -2.57263e+06 4.29233e+06
110 3 O 7.03923 15.572 1.4948 -1.2 -9.57209 -4.54769e+06 -1.1917e+06 -1.38276e+06 -944812 -1.31641e+06 1.06114e+06
111 3 O -0.248332 15.3041 0.196716 -1.2 -3.65943 85337.8 -1.25261e+07 -3.06182e+07 3.25945e+06 -5.42845e+06 4.07058e+06
112 3 O -0.289436 15.3041 2.79288 -1.2 -8.8284 -1.93772e+06 -3.67033e+06 -2.40113e+06 -841002 23382.7 1.1364e+06
113 1 Mg 6.59566 18.996 0 1.2 -5.74335 4.86715e+06 327198 -6.31225e+06 -905814 -676944 -900086
114 1 Mg 3.85574 23.7037 1.4948 1.2 -8.66789 -115087 1.87777e+06 4.94159e+06 -1.18687e+06 -940259 -92255.3
115 2 Si 5.66125 21.0195 1.4948 2.4 -34.3879 8.66788e+06 1.04504e+07 1.19819e+07 181935 1.19008e+06 -2.21691e+06
116 3 O 5.72074 22.6328 1.4948 -1.2 -5.60602 -3.4101e+06 -415525 -2.75432e+07 -218721 -8.49612e+06 -3.77863e+06
117 3 O 2.03867 20.0455 1.4948 -1.2 -9.52591 -4.47968e+06 -1.02105e+06 -1.52541e+06 1.57923e+06 -1.14935e+06 -1.02798e+06
118 3 O 4.96004 20.3134 0.196716 -1.2 -3.83433 -362834 -1.43237e+07 -2.68531e+07 -3.17924e+06 -7.92376e+06 -2.79785e+06
119 1 Mg 6.55057 18.996 2.9896 1.2 -8.03721 4.44774e+06 -1.9334e+06 -69686.4 1.30643e+06 -1.21912e+06 2.00015e+06
120 3 O 4.92172 20.3134 2.79288 -1.2 -8.75559 -1.99206e+06 -3.52952e+06 -2.48447e+06 1.09322e+06 -56175.7 -1.2898e+06
121 1 Mg -0.84282 19.0373 4.4844 1.2 -8.76496 -817474 2.2617e+06 3.41478e+06 -488452 -263295 47012.8
122 2 Si -2.64823 21.7214 4.4844 2.4 -32.9926 1.17471e+07 8.26911e+06 9.00741e+06 73678.9 20944.5 58194.4
123 3 O -2.70847 20.1082 4.4844 -1.2 -9.39404 -4.11967e+06 151856 -3.98654e+06 265616 -155801 -32074.8
124 3 O 0.97581 22.6955 4.4844 -1.2 -9.14443 -3.45506e+06 -2.40466e+06 -3.57392e+06 2.21205e+06 -486098 -6537.52
125 3 O -1.9076 22.4276 3.18632 -1.2 -8.9611 -3.02197e+06 -3.20143e+06 -1.02269e+06 1.15512e+06 -108749 -1.57631e+06
126 3 O -1.9475 22.4276 5.78248 -1.2 -8.91304 -3.03163e+06 -3.37011e+06 -1.95396e+06 1.14248e+06 -267533 1.38424e+06
127 1 Mg 1.50678 21.3705 2.9896 1.2 -8.07896 4.47784e+06 -1.85685e+06 -132848 -1.16915e+06 -1.25236e+06 -1.55868e+06
128 1 Mg 4.31086 21.3292 4.4844 1.2 -8.76631 -591499 2.21201e+06 3.35105e+06 1.12709e+06 -350763 66765.2
129 2 Si 2.49243 23.394 4.4844 2.4 -33.0616 1.1449e+07 8.41173e+06 9.23418e+06 719763 -236604 90304.2
130 3 O 2.51204 25.0073 4.4844 -1.2 -9.35912 -4.05695e+06 38629.7 -4.13104e+06 515496 -72685 -50295.6
131 3 O -4.13026 22.42 4.4844 -1.2 -9.24637 -3.71233e+06 -2.29812e+06 -3.2166e+06 -1.40832e+06 -426466 -87548.1
132 3 O 3.19799 22.6879 3.18632 -1.2 -8.98322 -2.97263e+06 -3.32622e+06 -1.12156e+06 -912861 66444.7 1.22688e+06
133 1 Mg 1.5501 21.3705 0 1.2 -5.83195 5.56551e+06 1.42092e+06 -5.9698e+06 -71219.1 -967935 518056
134 3 O 3.1583 22.6879 5.78248 -1.2 -8.85914 -2.89888e+06 -3.50958e+06 -2.35068e+06 -873813 50668.2 -1.2023e+06
135 1 Mg -1.29822 21.4118 1.4948 1.2 -8.60975 269338 1.75586e+06 4.87462e+06 1.81437e+06 -923889 361581
136 2 Si 0.523568 19.3469 1.4948 2.4 -34.4117 8.39387e+06 1.07244e+07 1.19242e+07 308453 1.01572e+06 2.64006e+06
137 3 O 0.508934 17.7337 1.4948 -1.2 -5.01002 -1.72311e+06 -530312 -3.25457e+07 670008 -6.0903e+06 4.09124e+06
138 3 O 7.14425 20.321 1.4948 -1.2 -9.56771 -4.62481e+06 -872937 -1.44052e+06 -945760 -1.0726e+06 966652
139 3 O -0.145107 20.0531 0.196716 -1.2 -3.93802 -731312 -1.39873e+07 -2.68581e+07 3.6758e+06 -8.21415e+06 3.03785e+06
140 3 O -0.183601 20.0531 2.79288 -1.2 -8.7898 -1.9741e+06 -3.65206e+06 -2.49457e+06 -854499 -32896.5 991187
141 1 Mg 6.70502 23.745 0 1.2 -5.8432 5.40202e+06 1.64338e+06 -5.61956e+06 412347 -1.49861e+06 -446046
142 1 Mg 3.97493 28.4527 1.4948 1.2 -8.76366 -415868 2.11884e+06 4.92211e+06 -1.22025e+06 -786225 8897.68
143 2 Si 5.77602 25.7685 1.4948 2.4 -34.2617 9.32464e+06 1.00011e+07 1.16599e+07 -107682 1.53476e+06 -1.99188e+06
144 3 O 5.83821 27.3818 1.4948 -1.2 -6.39538 -5.15614e+06 -335266 -2.13776e+07 -343232 -9.29868e+06 -3.22509e+06
145 3 O 2.15175 24.7945 1.4948 -1.2 -9.53489 -4.45534e+06 -872508 -1.55008e+06 1.61466e+06 -913823 -1.05961e+06
146 3 O 5.07184 25.0624 0.196716 -1.2 -4.46507 -1.63398e+06 -1.50365e+07 -2.12378e+07 -2.78563e+06 -9.41707e+06 -1.61081e+06
147 1 Mg 6.66374 23.745 2.9896 1.2 -8.02735 4.573e+06 -1.89858e+06 -242735 1.31716e+06 -1.23042e+06 2.07253e+06
148 3 O 5.03707 25.0624 2.79288 -1.2 -8.7471 -2.04582e+06 -3.60345e+06 -2.41246e+06 1.0789e+06 -130281 -1.35625e+06
149 1 Mg -0.727559 23.7863 4.4844 1.2 -8.79102 -861567 2.28342e+06 3.47014e+06 -522674 -171721 36424.8
150 2 Si -2.5277 26.4704 4.4844 2.4 -33.0563 1.16636e+07 8.38091e+06 9.08207e+06 15640.8 -96494.6 290897
151 3 O -2.59107 24.8572 4.4844 -1.2 -9.38635 -4.09866e+06 72572.2 -3.94282e+06 374176 -158790 -140973
152 3 O 1.09817 27.4445 4.4844 -1.2 -9.13912 -3.54727e+06 -2.48924e+06 -3.41579e+06 2.27015e+06 -407351 -37413.8
153 3 O -1.78784 27.1766 3.18632 -1.2 -8.92247 -2.98845e+06 -3.27206e+06 -1.10661e+06 1.17319e+06 3874.98 -1.64223e+06
154 3 O -1.82343 27.1766 5.78248 -1.2 -8.85192 -3.00972e+06 -3.42273e+06 -1.95699e+06 1.1838e+06 9015.73 1.27214e+06
155 1 Mg 1.62435 26.1195 2.9896 1.2 -8.07373 4.58014e+06 -1.78933e+06 -308039 -1.15794e+06 -1.32115e+06 -1.49683e+06
156 1 Mg 4.43064 26.0782 4.4844 1.2 -8.76686 -539874 2.23817e+06 3.27349e+06 1.24688e+06 -273273 154086
157 2 Si 2.61607 28.143 4.4844 2.4 -33.0725 1.16979e+07 8.48171e+06 8.93048e+06 736672 -220753 124641
158 3 O 2.63853 29.7563 4.4844 -1.2 -9.33284 -4.2025e+06 13374.6 -4.01249e+06 557300 -42439.8 -73072.4
159 3 O -4.00841 27.169 4.4844 -1.2 -9.20754 -3.71656e+06 -2.30017e+06 -3.27873e+06 -1.39131e+06 -453299 -176151
160 3 O 3.3182 27.4369 3.18632 -1.2 -8.9607 -3.00186e+06 -3.40023e+06 -1.13289e+06 -910365 126148 1.17556e+06
161 1 Mg 1.66335 26.1195 0 1.2 -5.90675 5.4022e+06 2.10301e+06 -5.14952e+06 -891719 -1.58052e+06 412196
162 3 O 3.28288 27.4369 5.78248 -1.2 -8.89249 -3.01861e+06 -3.49069e+06 -2.07531e+06 -930000 -54589.6 -1.1795e+06
163 1 Mg -1.18278 26.1608 1.4948 1.2 -8.70099 -38016 2.00685e+06 4.88493e+06 1.87979e+06 -824957 351674
164 2 Si 0.635424 24.0959 1.4948 2.4 -34.3293 8.92167e+06 1.02972e+07 1.17592e+07 740873 1.38274e+06 2.81457e+06
165 3 O 0.617906 22.4827 1.4948 -1.2 -5.59179 -3.42198e+06 -398890 -2.77053e+07 1.01303e+06 -8.54999e+06 3.54277e+06
166 3 O 7.25781 25.07 1.4948 -1.2 -9.57959 -4.60561e+06 -741322 -1.453e+06 -933636 -847361 871328
167 3 O -0.0337363 24.8021 0.196716 -1.2 -4.55253 -1.95999e+06 -1.49899e+07 -2.12297e+07 3.50387e+06 -9.6479e+06 1.68173e+06
168 3 O -0.0687235 24.8021 2.79288 -1.2 -8.77522 -1.98708e+06 -3.73587e+06 -2.47461e+06 -822346 -93872.8 906460
169 1 Mg 6.82195 28.494 0 1.2 -5.96705 4.94045e+06 2.17287e+06 -4.60958e+06 1.15063e+06 -1.81933e+06 -335567
170 1 Mg 4.10106 33.2017 1.4948 1.2 -8.88043 -697702 2.21208e+06 4.95733e+06 -1.20748e+06 -546385 25325.4
171 2 Si 5.89839 30.5175 1.4948 2.4 -34.1436 1.01396e+07 9.33239e+06 1.14074e+07 -327953 1.71223e+06 -1.88615e+06
172 3 O 5.96289 32.1308 1.4948 -1.2 -7.20705 -6.36085e+06 -161015 -1.53915e+07 -288319 -8.46951e+06 -2.55575e+06
173 3 O 2.27266 29.5435 1.4948 -1.2 -9.5157 -4.44171e+06 -781243 -1.63791e+06 1.65747e+06 -692901 -1.03665e+06
174 3 O 5.19102 29.8114 0.196716 -1.2 -5.29357 -3.00837e+06 -1.46147e+07 -1.51552e+07 -1.9361e+06 -9.28841e+06 -267625
175 1 Mg 6.78546 28.494 2.9896 1.2 -8.04726 4.65031e+06 -1.88028e+06 -300974 1.32119e+06 -1.27265e+06 2.08274e+06
176 3 O 5.16061 29.8114 2.79288 -1.2 -8.71513 -2.14481e+06 -3.62456e+06 -2.38363e+06 1.10466e+06 -235982 -1.33585e+06
177 1 Mg -0.603205 28.5353 4.4844 1.2 -8.83916 -834363 2.3109e+06 3.48643e+06 -490652 -230831 98447.5
178 2 Si -2.39877 31.2194 4.4844 2.4 -33.2051 1.17755e+07 8.50469e+06 9.09043e+06 57847.6 -111127 205801
179 3 O -2.46483 29.6062 4.4844 -1.2 -9.31306 -4.11058e+06 42341.4 -4.00845e+06 382161 -108946 -87672.7
180 3 O 1.22864 32.1935 4.4844 -1.2 -9.07534 -3.6946e+06 -2.49711e+06 -3.3702e+06 2.25526e+06 -341610 -92777.6
181 3 O -1.66032 31.9256 3.18632 -1.2 -8.84861 -3.0134e+06 -3.27359e+06 -1.27544e+06 1.15703e+06 80448.6 -1.61587e+06
182 3 O -1.69072 31.9256 5.78248 -1.2 -8.75901 -3.07857e+06 -3.56539e+06 -1.84647e+06 1.19032e+06 5868.3 1.30441e+06
183 1 Mg 1.7499 30.8685 2.9896 1.2 -8.10067 4.73562e+06 -1.78965e+06 -413484 -1.13528e+06 -1.41738e+06 -1.45437e+06
184 1 Mg 4.55894 30.8272 4.4844 1.2 -8.81641 -445866 2.28812e+06 3.2095e+06 1.21748e+06 -172999 153893
185 2 Si 2.7476 32.892 4.4844 2.4 -33.2183 1.19556e+07 8.39721e+06 8.98914e+06 745305 -221817 297467
186 3 O 2.77235 34.5053 4.4844 -1.2 -9.23536 -4.32338e+06 142773 -4.17476e+06 600314 -3484.91 -109161
187 3 O -3.87837 31.918 4.4844 -1.2 -9.14074 -3.82688e+06 -2.34009e+06 -3.23843e+06 -1.32996e+06 -418131 -183149
188 3 O 3.44611 32.1859 3.18632 -1.2 -8.89463 -3.05543e+06 -3.3898e+06 -1.29015e+06 -876523 191225 1.13718e+06
189 1 Mg 1.7837 30.8685 0 1.2 -6.04684 4.47455e+06 2.22888e+06 -4.18398e+06 -1.34898e+06 -1.54847e+06 456477
190 3 O 3.41602 32.1859 5.78248 -1.2 -8.83912 -3.14036e+06 -3.52329e+06 -1.87303e+06 -909984 -95330.4 -1.35026e+06
191 1 Mg -1.05984 30.9098 1.4948 1.2 -8.81177 -339915 2.18166e+06 4.88778e+06 1.9062e+06 -626996 241790
192 2 Si 0.755243 28.8449 1.4948 2.4 -34.2046 9.67916e+06 9.75798e+06 1.1426e+07 1.12955e+06 1.57189e+06 2.74304e+06
193 3 O 0.735127 27.2317 1.4948 -1.2 -6.38576 -5.18544e+06 -333007 -2.15028e+07 1.17955e+06 -9.31328e+06 2.89701e+06
194 3 O 7.37914 29.819 1.4948 -1.2 -9.55367 -4.56743e+06 -650252 -1.59085e+06 -932423 -635436 890024
195 3 O 0.0850649 29.5511 0.196716 -1.2 -5.35992 -3.25345e+06 -1.49678e+07 -1.50969e+07 2.7015e+06 -9.43137e+06 356480
196 3 O 0.0543974 29.5511 2.79288 -1.2 -8.74779 -2.08758e+06 -3.77233e+06 -2.43218e+06 -830177 -112473 853564
197 1 Mg 6.94543 33.243 0 1.2 -6.15043 3.92148e+06 2.13004e+06 -3.58039e+06 1.57969e+06 -1.42307e+06 -658481
198 1 Mg 4.23267 37.9507 1.4948 1.2 -8.93853 -992827 2.29861e+06 4.84454e+06 -1.12981e+06 -240516 -24325.4
199 2 Si 6.02709 35.2665 1.4948 2.4 -34.0264 1.10054e+07 8.34862e+06 1.13874e+07 -423190 1.6315e+06 -1.83703e+06
200 3 O 6.09339 36.8798 1.4948 -1.2 -7.94869 -6.67537e+06 38379 -1.05809e+07 -133959 -6.61945e+06 -1.93996e+06
201 3 O 2.40018 34.2925 1.4948 -1.2 -9.45067 -4.42876e+06 -625000 -1.96308e+06 1.69449e+06 -494340 -965757
202 3 O 5.31645 34.5604 0.196716 -1.2 -6.17127 -4.09218e+06 -1.28664e+07 -9.97659e+06 -947109 -7.84401e+06 967936
203 1 Mg 6.91449 33.243 2.9896 1.2 -8.09454 4.79208e+06 -1.95907e+06 -279906 1.3102e+06 -1.35104e+06 2.04325e+06
204 3 O 5.291 34.5604 2.79288 -1.2 -8.66783 -2.32078e+06 -3.47695e+06 -2.46568e+06 1.13377e+06 -282217 -1.27168e+06
205 1 Mg -0.471101 33.2843 4.4844 1.2 -8.92381 -720004 2.27849e+06 3.53434e+06 -429472 -190154 145918
206 2 Si -2.26307 35.9684 4.4844 2.4 -33.3567 1.20489e+07 8.12331e+06 9.44984e+06 113326 -91284 6049.1
207 3 O -2.33122 34.3552 4.4844 -1.2 -9.22413 -4.24955e+06 161304 -4.12007e+06 393312 -71332.1 -98713.4
208 3 O 1.36549 36.9425 4.4844 -1.2 -9.00571 -3.75777e+06 -2.39463e+06 -3.51647e+06 2.24496e+06 -302969 41694.3
209 3 O -1.52658 36.6746 3.18632 -1.2 -8.79422 -3.03985e+06 -3.16736e+06 -1.53431e+06 1.14066e+06 105161 -1.46981e+06
210 3 O -1.55122 36.6746 5.78248 -1.2 -8.64987 -3.24383e+06 -3.26846e+06 -2.15526e+06 1.14332e+06 59710.9 1.49436e+06
211 1 Mg 1.882 35.6175 2.9896 1.2 -8.15066 4.84124e+06 -1.91837e+06 -300127 -1.1108e+06 -1.51022e+06 -1.49351e+06
212 1 Mg 4.69415 35.5762 4.4844 1.2 -8.9032 -297103 2.12903e+06 3.36043e+06 1.19408e+06 -159076 68264.9
213 2 Si 2.88522 37.641 4.4844 2.4 -33.3272 1.19019e+07 8.3817e+06 9.24097e+06 791079 -301989 16042.9
214 3 O 2.91159 39.2543 4.4844 -1.2 -9.23856 -4.18153e+06 40485.7 -4.20046e+06 587507 26864.1 -24224.4
215 3 O -3.74183 36.667 4.4844 -1.2 -9.0938 -3.9921e+06 -2.19671e+06 -3.28232e+06 -1.28441e+06 -363700 -10407.2
216 3 O 3.58014 36.9349 3.18632 -1.2 -8.83703 -3.03198e+06 -3.32775e+06 -1.5688e+06 -849710 267851 1.22393e+06
217 1 Mg 1.90997 35.6175 0 1.2 -6.21538 3.29964e+06 1.97407e+06 -3.4629e+06 -1.65613e+06 -797504 808333
218 3 O 3.55582 36.9349 5.78248 -1.2 -8.71655 -3.23326e+06 -3.49838e+06 -2.02095e+06 -877913 99164.2 -1.16794e+06
219 1 Mg -0.93068 35.6588 1.4948 1.2 -8.90834 -598390 2.20595e+06 4.88456e+06 1.86312e+06 -310542 96056.7
220 2 Si 0.881882 33.5939 1.4948 2.4 -34.1074 1.05648e+07 8.8419e+06 1.13717e+07 1.41563e+06 1.59672e+06 2.42177e+06
221 3 O 0.859602 31.9807 1.4948 -1.2 -7.20062 -6.40542e+06 -162417 -1.54987e+07 1.1582e+06 -8.45734e+06 2.32956e+06
222 3 O 7.507 34.568 1.4948 -1.2 -9.49084 -4.5603e+06 -499075 -1.91621e+06 -933139 -446390 991393
223 3 O 0.210186 34.3001 0.196716 -1.2 -6.2088 -4.24111e+06 -1.35909e+07 -9.89147e+06 1.52878e+06 -7.9342e+06 -714581
224 3 O 0.184454 34.3001 2.79288 -1.2 -8.69988 -2.2584e+06 -3.64396e+06 -2.51206e+06 -853636 -164296 851078
225 1 Mg 7.07415 37.992 0 1.2 -6.28828 2.79196e+06 1.90814e+06 -3.15736e+06 1.87801e+06 -393225 -1.29956e+06
226 1 Mg 4.36817 42.6997 1.4948 1.2 -8.88611 -1.2645e+06 2.5018e+06 4.44713e+06 -991405 99931.1 -8677.85
227 2 Si 6.16058 40.0155 1.4948 2.4 -33.7717 1.15255e+07 7.74226e+06 1.10732e+07 -368753 1.306e+06 -1.71782e+06
228 3 O 6.22815 41.6288 1.4948 -1.2 -8.59944 -6.14295e+06 10737 -7.13393e+06 25586.9 -4.50974e+06 -1.55549e+06
229 3 O 2.53282 39.0415 1.4948 -1.2 -9.4205 -4.29832e+06 -672635 -2.25397e+06 1.71934e+06 -331055 -885424
230 3 O 5.44674 39.3094 0.196716 -1.2 -7.0449 -4.55666e+06 -1.04306e+07 -6.10829e+06 -151479 -5.77098e+06 1.85327e+06
231 1 Mg 7.04922 37.992 2.9896 1.2 -8.08903 4.86412e+06 -1.99353e+06 -315371 1.28737e+06 -1.45942e+06 1.885e+06
232 3 O 5.42658 39.3094 2.79288 -1.2 -8.70589 -2.39811e+06 -3.47077e+06 -2.36116e+06 1.14557e+06 -262975 -1.16902e+06
233 1 Mg -0.333062 38.0333 4.4844 1.2 -8.9356 -690155 2.24819e+06 3.54955e+06 -380347 -76751.7 -57386.4
234 2 Si -2.12255 40.7174 4.4844 2.4 -33.1373 1.19292e+07 8.46243e+06 8.88186e+06 125206 -75109 -14326.1
235 3 O -2.19212 39.1042 4.4844 -1.2 -9.27917 -4.26222e+06 77084.5 -3.92472e+06 431030 -60468.1 79997.2
236 3 O 1.50676 41.6915 4.4844 -1.2 -9.09676 -3.58403e+06 -2.51367e+06 -3.42501e+06 2.32375e+06 -284680 20908.4
237 3 O -1.3884 41.4236 3.18632 -1.2 -8.8548 -2.88693e+06 -3.31178e+06 -1.54977e+06 1.14729e+06 90718.9 -1.46015e+06
238 3 O -1.40713 41.4236 5.78248 -1.2 -8.85774 -3.08602e+06 -3.48437e+06 -1.64917e+06 1.15773e+06 -115323 1.32377e+06
239 1 Mg 2.01892 40.3665 2.9896 1.2 -8.10775 4.74282e+06 -1.82599e+06 -349572 -1.09469e+06 -1.5836e+06 -1.55008e+06
240 1 Mg 4.83434 40.3252 4.4844 1.2 -8.85214 -445172 2.23615e+06 3.3219e+06 1.22252e+06 -213452 31580.7
241 2 Si 3.02698 42.39 4.4844 2.4 -33.1287 1.14716e+07 8.55196e+06 9.18572e+06 773652 -283510 -51491.4
242 3 O 3.05433 44.0033 4.4844 -1.2 -9.3803 -4.00609e+06 -51072.7 -4.06364e+06 588526 54952.8 7773.76
243 3 O -3.60077 41.416 4.4844 -1.2 -9.20851 -3.90288e+06 -2.3396e+06 -3.04609e+06 -1.32262e+06 -188783 -60231
244 3 O 3.71851 41.6839 3.18632 -1.2 -8.88862 -2.82802e+06 -3.45037e+06 -1.67672e+06 -849842 292482 1.23648e+06
245 1 Mg 2.04077 40.3665 0 1.2 -6.287 2.27261e+06 1.78531e+06 -3.55355e+06 -1.84696e+06 425927 1.52939e+06
246 3 O 3.70011 41.6839 5.78248 -1.2 -8.79408 -2.90034e+06 -3.55586e+06 -2.15358e+06 -907265 96958.1 -1.20666e+06
247 1 Mg -0.796865 40.4078 1.4948 1.2 -8.89854 -876975 2.37653e+06 4.58522e+06 1.75112e+06 62848.8 8076.76
248 2 Si 1.01387 38.3429 1.4948 2.4 -33.9178 1.12068e+07 8.04595e+06 1.12572e+07 1.54145e+06 1.45704e+06 1.94339e+06
249 3 O 0.989947 36.7297 1.4948 -1.2 -7.93817 -6.71426e+06 40167 -1.07118e+07 1.03028e+06 -6.62277e+06 1.93103e+06
250 3 O 7.63988 39.317 1.4948 -1.2 -9.47221 -4.45132e+06 -579682 -2.14771e+06 -932406 -272556 1.1114e+06
251 3 O 0.340253 39.0491 0.196716 -1.2 -7.05087 -4.62997e+06 -1.13452e+07 -6.06551e+06 388546 -5.85837e+06 -1.48335e+06
252 3 O 0.319795 39.0491 2.79288 -1.2 -8.73189 -2.33245e+06 -3.63369e+06 -2.43463e+06 -869046 -232350 942811
253 1 Mg 7.20667 42.741 0 1.2 -6.30867 1.89064e+06 1.7938e+06 -3.57279e+06 1.99835e+06 910630 -2.14027e+06
254 1 Mg 4.50613 47.4487 1.4948 1.2 -8.80707 -1.35401e+06 2.59307e+06 4.11555e+06 -850887 421303 111381
255 2 Si 6.29731 44.7645 1.4948 2.4 -33.4653 1.16536e+07 7.3587e+06 1.08146e+07 -225712 915782 -1.39324e+06
256 3 O 6.36567 46.3778 1.4948 -1.2 -9.0714 -5.22998e+06 -23058.7 -5.15637e+06 181241 -2.71034e+06 -1.39069e+06
257 3 O 2.669 43.7905 1.4948 -1.2 -9.43797 -4.07973e+06 -940931 -2.4465e+06 1.72138e+06 -192817 -906995
258 3 O 5.58048 44.0584 0.196716 -1.2 -7.81768 -4.40134e+06 -7.87875e+06 -3.61305e+06 316569 -3.70738e+06 2.39459e+06
259 1 Mg 7.1879 42.741 2.9896 1.2 -7.99991 4.73115e+06 -1.86174e+06 -443648 1.29272e+06 -1.57207e+06 1.93485e+06
260 3 O 5.56564 44.0584 2.79288 -1.2 -8.81653 -2.37732e+06 -3.52408e+06 -2.17718e+06 1.11638e+06 -277142 -1.20776e+06
261 1 Mg -0.19105 42.7823 4.4844 1.2 -8.82238 -898839 2.3404e+06 3.4828e+06 -464563 10301.6 68084.4
262 2 Si -1.97909 45.4664 4.4844 2.4 -32.9531 1.13447e+07 8.52513e+06 9.1125e+06 96004.2 -78696.1 232847
263 3 O -2.04947 43.8532 4.4844 -1.2 -9.39126 -4.03292e+06 11066.1 -3.90773e+06 456616 -47880.3 -100785
264 3 O 1.65063 46.4405 4.4844 -1.2 -9.23964 -3.46846e+06 -2.59911e+06 -3.23801e+06 2.29996e+06 -124971 -99297.2
265 3 O -1.24745 46.1726 3.18632 -1.2 -8.9182 -2.64966e+06 -3.38192e+06 -1.72065e+06 1.14841e+06 89881.4 -1.53119e+06
266 3 O -1.26044 46.1726 5.78248 -1.2 -8.93884 -2.68745e+06 -3.43952e+06 -1.94521e+06 1.21695e+06 18146.8 1.22684e+06
267 1 Mg 2.15896 45.1155 2.9896 1.2 -8.00861 4.59988e+06 -1.70002e+06 -475781 -1.07609e+06 -1.71073e+06 -1.50161e+06
268 1 Mg 4.97763 45.0742 4.4844 1.2 -8.71174 -626225 2.31795e+06 3.19557e+06 1.28715e+06 -53198.6 94469.4
269 2 Si 3.1711 47.139 4.4844 2.4 -32.8725 1.12199e+07 8.65789e+06 8.91607e+06 771037 -196130 371470